created by fftool

7548 atoms
47 bonds
87 angles
118 dihedrals
15 atom types
9 bond types
14 angle types
23 dihedral types

0.000000 138.550000 xlo xhi
0.000000 200.000000 ylo yhi
0.000000 120.000000 zlo zhi

Masses

   1   14.007  # NA
   2   12.011  # CR
   3   12.011  # CW
   4   12.011  # C1
   5    1.008  # HCR
   6   12.011  # C1A
   7    1.008  # HCW
   8    1.008  # H1
   9   12.011  # C2
  10   12.011  # CS
  11    1.008  # HC
  12   12.011  # CT
  13   10.811  # B
  14   18.998  # FB
  15  195.084  # Pt

Bond Coeffs

   1   477.055449     1.315000  # CR-NA
   2   427.103250     1.378000  # CW-NA
   3   520.076482     1.341000  # CW-CW
   4   336.998088     1.466000  # NA-CT
   5   339.985660     1.080000  # CR-HA
   6   339.985660     1.080000  # CW-HA
   7   339.985660     1.090000  # HC-CT
   8   267.925430     1.529000  # CT-CT
   9   386.591778     1.394000  # B-F

Angle Coeffs

   1    70.004780   126.400000  # CR-NA-CT
   2    70.004780   108.000000  # CW-NA-CR
   3    70.004780   125.600000  # CW-NA-CT
   4    70.004780   109.800000  # NA-CR-NA
   5    35.002390   125.100000  # NA-CR-HA
   6    70.004780   107.100000  # NA-CW-CW
   7    35.002390   122.000000  # NA-CW-HA
   8    35.002390   130.900000  # CW-CW-HA
   9    37.500000   110.700000  # NA-CT-HC
  10    32.994742   107.800000  # HC-CT-HC
  11    58.353250   112.700000  # NA-CT-CT
  12    37.500000   110.700000  # CT-CT-HC
  13    58.353250   112.700000  # CT-CT-CT
  14    80.007170   109.500000  # F-B-F

Dihedral Coeffs

   1     0.000000     4.651052     0.000000     0.000000  # CT-NA-CR-NA
   2     0.000000     4.651052     0.000000     0.000000  # CW-NA-CR-NA
   3     0.000000     4.651052     0.000000     0.000000  # CT-NA-CR-HA
   4     0.000000     4.651052     0.000000     0.000000  # CW-NA-CR-HA
   5     0.000000     3.000000     0.000000     0.000000  # CR-NA-CW-CW
   6     0.000000     3.000000     0.000000     0.000000  # CT-NA-CW-CW
   7     0.000000     3.000000     0.000000     0.000000  # CR-NA-CW-HA
   8     0.000000     3.000000     0.000000     0.000000  # CT-NA-CW-HA
   9     0.000000    10.750478     0.000000     0.000000  # NA-CW-CW-HA
  10     0.000000    10.750478     0.000000     0.000000  # HA-CW-CW-HA
  11     0.000000    10.750478     0.000000     0.000000  # NA-CW-CW-NA
  12     0.000000     0.000000     0.000000     0.000000  # CR-NA-CT-HC
  13     0.000000     0.000000     0.124044     0.000000  # CW-NA-CT-HC
  14    -1.259345     0.000000     0.000000     0.000000  # CR-NA-CT-CT
  15    -1.709728     1.459465     0.189747     0.000000  # CW-NA-CT-CT
  16    -1.787691     0.756262    -0.287428     0.000000  # NA-CT-CT-CT
  17     0.000000     0.000000     0.300000     0.000000  # CT-CT-CT-HC
  18     0.000000     0.000000     0.087715     0.000000  # NA-CT-CT-HC
  19     0.000000     0.000000     0.300000     0.000000  # HC-CT-CT-HC
  20     1.300000    -0.050000     0.200000     0.000000  # CT-CT-CT-CT
  21     0.000000     2.000000     0.000000     0.000000  # CR-CW-NA-CT
  22     0.000000     2.200000     0.000000     0.000000  # NA-NA-CR-HA
  23     0.000000     2.200000     0.000000     0.000000  # NA-CW-CW-HA

Atoms

      1       1    1   0.150000  6.234159e+01  9.007563e+00  6.548605e+01  # NA c10c1im+
      2       1    2  -0.110000  6.357861e+01  8.959713e+00  6.504243e+01  # CR c10c1im+
      3       1    1   0.150000  6.357813e+01  8.867697e+00  6.373063e+01  # NA c10c1im+
      4       1    3  -0.130000  6.226752e+01  8.855591e+00  6.330505e+01  # CW c10c1im+
      5       1    3  -0.130000  6.149689e+01  8.942749e+00  6.439907e+01  # CW c10c1im+
      6       1    4  -0.170000  6.192295e+01  9.111507e+00  6.688718e+01  # C1 c10c1im+
      7       1    5   0.210000  6.446234e+01  8.991251e+00  6.566244e+01  # HCR c10c1im+
      8       1    6  -0.170000  6.475925e+01  8.791047e+00  6.286553e+01  # C1A c10c1im+
      9       1    7   0.210000  6.192540e+01  8.788526e+00  6.228285e+01  # HCW c10c1im+
     10       1    7   0.210000  6.041730e+01  8.959109e+00  6.442380e+01  # HCW c10c1im+
     11       1    8   0.130000  6.131474e+01  8.246079e+00  6.715037e+01  # H1 c10c1im+
     12       1    8   0.130000  6.280367e+01  9.144589e+00  6.752856e+01  # H1 c10c1im+
     13       1    8   0.130000  6.133875e+01  1.002125e+01  6.702584e+01  # H1 c10c1im+
     14       1    9   0.010000  6.602403e+01  8.834132e+00  6.372362e+01  # C2 c10c1im+
     15       1    8   0.130000  6.473612e+01  7.859587e+00  6.229987e+01  # H1 c10c1im+
     16       1    8   0.130000  6.476009e+01  9.634735e+00  6.217537e+01  # H1 c10c1im+
     17       1   10  -0.120000  6.725588e+01  8.754180e+00  6.282136e+01  # CS c10c1im+
     18       1   11   0.060000  6.604846e+01  9.765591e+00  6.428925e+01  # HC c10c1im+
     19       1   11   0.060000  6.602442e+01  7.990431e+00  6.441377e+01  # HC c10c1im+
     20       1   10  -0.120000  6.852072e+01  8.797272e+00  6.367943e+01  # CS c10c1im+
     21       1   11   0.060000  6.725675e+01  9.597861e+00  6.213120e+01  # HC c10c1im+
     22       1   11   0.060000  6.723277e+01  7.822700e+00  6.225571e+01  # HC c10c1im+
     23       1   10  -0.120000  6.975259e+01  8.717299e+00  6.277719e+01  # CS c10c1im+
     24       1   11   0.060000  6.852107e+01  7.953571e+00  6.436957e+01  # HC c10c1im+
     25       1   11   0.060000  6.854511e+01  9.728698e+00  6.424509e+01  # HC c10c1im+
     26       1   10  -0.120000  7.101735e+01  8.760394e+00  6.363526e+01  # CS c10c1im+
     27       1   11   0.060000  6.975348e+01  9.560998e+00  6.208700e+01  # HC c10c1im+
     28       1   11   0.060000  6.972942e+01  7.785853e+00  6.221151e+01  # HC c10c1im+
     29       1   10  -0.120000  7.224925e+01  8.680456e+00  6.273299e+01  # CS c10c1im+
     30       1   11   0.060000  7.101777e+01  7.916696e+00  6.432541e+01  # HC c10c1im+
     31       1   11   0.060000  7.104175e+01  9.691850e+00  6.420088e+01  # HC c10c1im+
     32       1   10  -0.120000  7.351404e+01  8.723543e+00  6.359105e+01  # CS c10c1im+
     33       1   11   0.060000  7.225011e+01  9.524130e+00  6.204282e+01  # HC c10c1im+
     34       1   11   0.060000  7.222612e+01  7.748977e+00  6.216733e+01  # HC c10c1im+
     35       1   10  -0.120000  7.474590e+01  8.643570e+00  6.268882e+01  # CS c10c1im+
     36       1   11   0.060000  7.351447e+01  7.879833e+00  6.428121e+01  # HC c10c1im+
     37       1   11   0.060000  7.353843e+01  9.654963e+00  6.415672e+01  # HC c10c1im+
     38       1   12  -0.180000  7.601070e+01  8.686652e+00  6.354691e+01  # CT c10c1im+
     39       1   11   0.060000  7.474675e+01  9.487263e+00  6.199864e+01  # HC c10c1im+
     40       1   11   0.060000  7.472280e+01  7.712108e+00  6.212315e+01  # HC c10c1im+
     41       1   11   0.060000  7.688892e+01  8.629665e+00  6.290369e+01  # HC c10c1im+
     42       1   11   0.060000  7.601113e+01  7.842955e+00  6.423702e+01  # HC c10c1im+
     43       1   11   0.060000  7.603511e+01  9.618103e+00  6.411253e+01  # HC c10c1im+
     44       2   13   0.960000  6.303599e+01  1.241423e+01  6.501897e+01  # B BF4-
     45       2   14  -0.490000  6.291698e+01  1.268077e+01  6.365588e+01  # FB BF4-
     46       2   14  -0.490000  6.315760e+01  1.361370e+01  6.571877e+01  # FB BF4-
     47       2   14  -0.490000  6.190315e+01  1.173228e+01  6.546041e+01  # FB BF4-
     48       2   14  -0.490000  6.416638e+01  1.162980e+01  6.524277e+01  # FB BF4-
     49       3   15   0.000000  1.504826e+00  5.621923e+00  1.183989e+02  # Pt Pt
     50       4   15   0.000000  4.275826e+00  5.622474e+00  1.183990e+02  # Pt Pt
     51       5   15   0.000000  7.048824e+00  5.623024e+00  1.183991e+02  # Pt Pt
     52       6   15   0.000000  9.819823e+00  5.623575e+00  1.183992e+02  # Pt Pt
     53       7   15   0.000000  1.259182e+01  5.624125e+00  1.183993e+02  # Pt Pt
     54       8   15   0.000000  1.536382e+01  5.624676e+00  1.183994e+02  # Pt Pt
     55       9   15   0.000000  1.813582e+01  5.625226e+00  1.183995e+02  # Pt Pt
     56      10   15   0.000000  2.090682e+01  5.625777e+00  1.183995e+02  # Pt Pt
     57      11   15   0.000000  2.367983e+01  5.626328e+00  1.183996e+02  # Pt Pt
     58      12   15   0.000000  2.645082e+01  5.626878e+00  1.183997e+02  # Pt Pt
     59      13   15   0.000000  1.189060e-01  5.599335e+00  1.159980e+02  # Pt Pt
     60      14   15   0.000000  2.890905e+00  5.599885e+00  1.159981e+02  # Pt Pt
     61      15   15   0.000000  5.661905e+00  5.600436e+00  1.159982e+02  # Pt Pt
     62      16   15   0.000000  8.434908e+00  5.600986e+00  1.159982e+02  # Pt Pt
     63      17   15   0.000000  1.120491e+01  5.601537e+00  1.159983e+02  # Pt Pt
     64      18   15   0.000000  1.397691e+01  5.602087e+00  1.159984e+02  # Pt Pt
     65      19   15   0.000000  1.674991e+01  5.602638e+00  1.159985e+02  # Pt Pt
     66      20   15   0.000000  1.952090e+01  5.603188e+00  1.159986e+02  # Pt Pt
     67      21   15   0.000000  2.229291e+01  5.603739e+00  1.159987e+02  # Pt Pt
     68      22   15   0.000000  2.506591e+01  5.604290e+00  1.159988e+02  # Pt Pt
     69      23   15   0.000000  1.504990e+00  5.577306e+00  1.135981e+02  # Pt Pt
     70      24   15   0.000000  4.275990e+00  5.577857e+00  1.135982e+02  # Pt Pt
     71      25   15   0.000000  7.048987e+00  5.578407e+00  1.135983e+02  # Pt Pt
     72      26   15   0.000000  9.819987e+00  5.578958e+00  1.135984e+02  # Pt Pt
     73      27   15   0.000000  1.259199e+01  5.579508e+00  1.135985e+02  # Pt Pt
     74      28   15   0.000000  1.536399e+01  5.580059e+00  1.135986e+02  # Pt Pt
     75      29   15   0.000000  1.813599e+01  5.580609e+00  1.135987e+02  # Pt Pt
     76      30   15   0.000000  2.090698e+01  5.581160e+00  1.135987e+02  # Pt Pt
     77      31   15   0.000000  2.367999e+01  5.581711e+00  1.135988e+02  # Pt Pt
     78      32   15   0.000000  2.645099e+01  5.582261e+00  1.135989e+02  # Pt Pt
     79      33   15   0.000000  1.190700e-01  5.554718e+00  1.111972e+02  # Pt Pt
     80      34   15   0.000000  2.891069e+00  5.555268e+00  1.111973e+02  # Pt Pt
     81      35   15   0.000000  5.662068e+00  5.555819e+00  1.111974e+02  # Pt Pt
     82      36   15   0.000000  8.435071e+00  5.556370e+00  1.111974e+02  # Pt Pt
     83      37   15   0.000000  1.120507e+01  5.556920e+00  1.111975e+02  # Pt Pt
     84      38   15   0.000000  1.397707e+01  5.557470e+00  1.111976e+02  # Pt Pt
     85      39   15   0.000000  1.675007e+01  5.558021e+00  1.111977e+02  # Pt Pt
     86      40   15   0.000000  1.952107e+01  5.558571e+00  1.111978e+02  # Pt Pt
     87      41   15   0.000000  2.229307e+01  5.559122e+00  1.111979e+02  # Pt Pt
     88      42   15   0.000000  2.506607e+01  5.559673e+00  1.111980e+02  # Pt Pt
     89      43   15   0.000000  1.505154e+00  5.532689e+00  1.087973e+02  # Pt Pt
     90      44   15   0.000000  4.276153e+00  5.533240e+00  1.087974e+02  # Pt Pt
     91      45   15   0.000000  7.049151e+00  5.533790e+00  1.087975e+02  # Pt Pt
     92      46   15   0.000000  9.820151e+00  5.534341e+00  1.087976e+02  # Pt Pt
     93      47   15   0.000000  1.259215e+01  5.534891e+00  1.087977e+02  # Pt Pt
     94      48   15   0.000000  1.536415e+01  5.535442e+00  1.087978e+02  # Pt Pt
     95      49   15   0.000000  1.813615e+01  5.535993e+00  1.087979e+02  # Pt Pt
     96      50   15   0.000000  2.090715e+01  5.536543e+00  1.087980e+02  # Pt Pt
     97      51   15   0.000000  2.368015e+01  5.537094e+00  1.087980e+02  # Pt Pt
     98      52   15   0.000000  2.645115e+01  5.537644e+00  1.087981e+02  # Pt Pt
     99      53   15   0.000000  1.192340e-01  5.510101e+00  1.063964e+02  # Pt Pt
    100      54   15   0.000000  2.891232e+00  5.510652e+00  1.063965e+02  # Pt Pt
    101      55   15   0.000000  5.662232e+00  5.511202e+00  1.063966e+02  # Pt Pt
    102      56   15   0.000000  8.435235e+00  5.511753e+00  1.063967e+02  # Pt Pt
    103      57   15   0.000000  1.120524e+01  5.512303e+00  1.063967e+02  # Pt Pt
    104      58   15   0.000000  1.397724e+01  5.512853e+00  1.063968e+02  # Pt Pt
    105      59   15   0.000000  1.675023e+01  5.513404e+00  1.063969e+02  # Pt Pt
    106      60   15   0.000000  1.952123e+01  5.513955e+00  1.063970e+02  # Pt Pt
    107      61   15   0.000000  2.229323e+01  5.514505e+00  1.063971e+02  # Pt Pt
    108      62   15   0.000000  2.506623e+01  5.515056e+00  1.063972e+02  # Pt Pt
    109      63   15   0.000000  1.505317e+00  5.488072e+00  1.039965e+02  # Pt Pt
    110      64   15   0.000000  4.276317e+00  5.488623e+00  1.039966e+02  # Pt Pt
    111      65   15   0.000000  7.049315e+00  5.489174e+00  1.039967e+02  # Pt Pt
    112      66   15   0.000000  9.820315e+00  5.489724e+00  1.039968e+02  # Pt Pt
    113      67   15   0.000000  1.259231e+01  5.490275e+00  1.039969e+02  # Pt Pt
    114      68   15   0.000000  1.536431e+01  5.490825e+00  1.039970e+02  # Pt Pt
    115      69   15   0.000000  1.813632e+01  5.491376e+00  1.039971e+02  # Pt Pt
    116      70   15   0.000000  2.090731e+01  5.491926e+00  1.039972e+02  # Pt Pt
    117      71   15   0.000000  2.368032e+01  5.492477e+00  1.039973e+02  # Pt Pt
    118      72   15   0.000000  2.645132e+01  5.493027e+00  1.039973e+02  # Pt Pt
    119      73   15   0.000000  1.193970e-01  5.465484e+00  1.015956e+02  # Pt Pt
    120      74   15   0.000000  2.891396e+00  5.466035e+00  1.015957e+02  # Pt Pt
    121      75   15   0.000000  5.662396e+00  5.466585e+00  1.015958e+02  # Pt Pt
    122      76   15   0.000000  8.435399e+00  5.467136e+00  1.015959e+02  # Pt Pt
    123      77   15   0.000000  1.120540e+01  5.467686e+00  1.015960e+02  # Pt Pt
    124      78   15   0.000000  1.397740e+01  5.468237e+00  1.015960e+02  # Pt Pt
    125      79   15   0.000000  1.675040e+01  5.468787e+00  1.015961e+02  # Pt Pt
    126      80   15   0.000000  1.952140e+01  5.469338e+00  1.015962e+02  # Pt Pt
    127      81   15   0.000000  2.229340e+01  5.469888e+00  1.015963e+02  # Pt Pt
    128      82   15   0.000000  2.506640e+01  5.470439e+00  1.015964e+02  # Pt Pt
    129      83   15   0.000000  1.505481e+00  5.443456e+00  9.919575e+01  # Pt Pt
    130      84   15   0.000000  4.276481e+00  5.444006e+00  9.919583e+01  # Pt Pt
    131      85   15   0.000000  7.049479e+00  5.444557e+00  9.919592e+01  # Pt Pt
    132      86   15   0.000000  9.820479e+00  5.445107e+00  9.919601e+01  # Pt Pt
    133      87   15   0.000000  1.259248e+01  5.445658e+00  9.919610e+01  # Pt Pt
    134      88   15   0.000000  1.536448e+01  5.446208e+00  9.919619e+01  # Pt Pt
    135      89   15   0.000000  1.813648e+01  5.446759e+00  9.919628e+01  # Pt Pt
    136      90   15   0.000000  2.090748e+01  5.447309e+00  9.919637e+01  # Pt Pt
    137      91   15   0.000000  2.368048e+01  5.447860e+00  9.919647e+01  # Pt Pt
    138      92   15   0.000000  2.645148e+01  5.448410e+00  9.919655e+01  # Pt Pt
    139      93   15   0.000000  1.195610e-01  5.420867e+00  9.679480e+01  # Pt Pt
    140      94   15   0.000000  2.891560e+00  5.421418e+00  9.679489e+01  # Pt Pt
    141      95   15   0.000000  5.662560e+00  5.421968e+00  9.679498e+01  # Pt Pt
    142      96   15   0.000000  8.435563e+00  5.422519e+00  9.679507e+01  # Pt Pt
    143      97   15   0.000000  1.120556e+01  5.423069e+00  9.679516e+01  # Pt Pt
    144      98   15   0.000000  1.397756e+01  5.423620e+00  9.679525e+01  # Pt Pt
    145      99   15   0.000000  1.675056e+01  5.424170e+00  9.679534e+01  # Pt Pt
    146     100   15   0.000000  1.952156e+01  5.424721e+00  9.679542e+01  # Pt Pt
    147     101   15   0.000000  2.229356e+01  5.425271e+00  9.679552e+01  # Pt Pt
    148     102   15   0.000000  2.506656e+01  5.425822e+00  9.679561e+01  # Pt Pt
    149     103   15   0.000000  1.221560e-01  3.304429e+00  1.177071e+02  # Pt Pt
    150     104   15   0.000000  2.891530e+00  3.306876e+00  1.177070e+02  # Pt Pt
    151     105   15   0.000000  5.661436e+00  3.306903e+00  1.177068e+02  # Pt Pt
    152     106   15   0.000000  8.432603e+00  3.307358e+00  1.177053e+02  # Pt Pt
    153     107   15   0.000000  1.120396e+01  3.307936e+00  1.177034e+02  # Pt Pt
    154     108   15   0.000000  1.397629e+01  3.308854e+00  1.177058e+02  # Pt Pt
    155     109   15   0.000000  1.674832e+01  3.309749e+00  1.177058e+02  # Pt Pt
    156     110   15   0.000000  1.951991e+01  3.310739e+00  1.177058e+02  # Pt Pt
    157     111   15   0.000000  2.229189e+01  3.311030e+00  1.177081e+02  # Pt Pt
    158     112   15   0.000000  2.506243e+01  3.310970e+00  1.177077e+02  # Pt Pt
    159     113   15   0.000000  1.507800e+00  3.283688e+00  1.153063e+02  # Pt Pt
    160     114   15   0.000000  4.277221e+00  3.283541e+00  1.153051e+02  # Pt Pt
    161     115   15   0.000000  7.046092e+00  3.284030e+00  1.153065e+02  # Pt Pt
    162     116   15   0.000000  9.816753e+00  3.286199e+00  1.153058e+02  # Pt Pt
    163     117   15   0.000000  1.258868e+01  3.287039e+00  1.153061e+02  # Pt Pt
    164     118   15   0.000000  1.536143e+01  3.286719e+00  1.153079e+02  # Pt Pt
    165     119   15   0.000000  1.813478e+01  3.287821e+00  1.153055e+02  # Pt Pt
    166     120   15   0.000000  2.090675e+01  3.287896e+00  1.153077e+02  # Pt Pt
    167     121   15   0.000000  2.367771e+01  3.288659e+00  1.153088e+02  # Pt Pt
    168     122   15   0.000000  2.644778e+01  3.287162e+00  1.153073e+02  # Pt Pt
    169     123   15   0.000000  1.224490e-01  3.259159e+00  1.129061e+02  # Pt Pt
    170     124   15   0.000000  2.892217e+00  3.261237e+00  1.129064e+02  # Pt Pt
    171     125   15   0.000000  5.662713e+00  3.261022e+00  1.129071e+02  # Pt Pt
    172     126   15   0.000000  8.432157e+00  3.260715e+00  1.129064e+02  # Pt Pt
    173     127   15   0.000000  1.120036e+01  3.261155e+00  1.129062e+02  # Pt Pt
    174     128   15   0.000000  1.397241e+01  3.263432e+00  1.129093e+02  # Pt Pt
    175     129   15   0.000000  1.674759e+01  3.264752e+00  1.129108e+02  # Pt Pt
    176     130   15   0.000000  1.952350e+01  3.265065e+00  1.129084e+02  # Pt Pt
    177     131   15   0.000000  2.229474e+01  3.266140e+00  1.129091e+02  # Pt Pt
    178     132   15   0.000000  2.506381e+01  3.265187e+00  1.129078e+02  # Pt Pt
    179     133   15   0.000000  1.505706e+00  3.236955e+00  1.105088e+02  # Pt Pt
    180     134   15   0.000000  4.274341e+00  3.238658e+00  1.105104e+02  # Pt Pt
    181     135   15   0.000000  7.044322e+00  3.237502e+00  1.105130e+02  # Pt Pt
    182     136   15   0.000000  9.815101e+00  3.240342e+00  1.105073e+02  # Pt Pt
    183     137   15   0.000000  1.258705e+01  3.241665e+00  1.105098e+02  # Pt Pt
    184     138   15   0.000000  1.536280e+01  3.242699e+00  1.105161e+02  # Pt Pt
    185     139   15   0.000000  1.813813e+01  3.241744e+00  1.105124e+02  # Pt Pt
    186     140   15   0.000000  2.091104e+01  3.242391e+00  1.105101e+02  # Pt Pt
    187     141   15   0.000000  2.368046e+01  3.242917e+00  1.105081e+02  # Pt Pt
    188     142   15   0.000000  2.644816e+01  3.241105e+00  1.105065e+02  # Pt Pt
    189     143   15   0.000000  1.241540e-01  3.213868e+00  1.081072e+02  # Pt Pt
    190     144   15   0.000000  2.887039e+00  3.218109e+00  1.081108e+02  # Pt Pt
    191     145   15   0.000000  5.650322e+00  3.218967e+00  1.081173e+02  # Pt Pt
    192     146   15   0.000000  8.420516e+00  3.226305e+00  1.081149e+02  # Pt Pt
    193     147   15   0.000000  1.120839e+01  3.226412e+00  1.081134e+02  # Pt Pt
    194     148   15   0.000000  1.398737e+01  3.228098e+00  1.081148e+02  # Pt Pt
    195     149   15   0.000000  1.675532e+01  3.222827e+00  1.081137e+02  # Pt Pt
    196     150   15   0.000000  1.952280e+01  3.221210e+00  1.081087e+02  # Pt Pt
    197     151   15   0.000000  2.229288e+01  3.222682e+00  1.081093e+02  # Pt Pt
    198     152   15   0.000000  2.506475e+01  3.220333e+00  1.081075e+02  # Pt Pt
    199     153   15   0.000000  1.506614e+00  3.192463e+00  1.057069e+02  # Pt Pt
    200     154   15   0.000000  4.267229e+00  3.196198e+00  1.057115e+02  # Pt Pt
    201     155   15   0.000000  7.036957e+00  3.206341e+00  1.057168e+02  # Pt Pt
    202     156   15   0.000000  9.820686e+00  3.194272e+00  1.057065e+02  # Pt Pt
    203     157   15   0.000000  1.259571e+01  3.194528e+00  1.057037e+02  # Pt Pt
    204     158   15   0.000000  1.537363e+01  3.204363e+00  1.057063e+02  # Pt Pt
    205     159   15   0.000000  1.813958e+01  3.198788e+00  1.057009e+02  # Pt Pt
    206     160   15   0.000000  2.090647e+01  3.199018e+00  1.057042e+02  # Pt Pt
    207     161   15   0.000000  2.367682e+01  3.200077e+00  1.057084e+02  # Pt Pt
    208     162   15   0.000000  2.644957e+01  3.198050e+00  1.057074e+02  # Pt Pt
    209     163   15   0.000000  1.221400e-01  3.169517e+00  1.033059e+02  # Pt Pt
    210     164   15   0.000000  2.889798e+00  3.169882e+00  1.033078e+02  # Pt Pt
    211     165   15   0.000000  5.656917e+00  3.180888e+00  1.033103e+02  # Pt Pt
    212     166   15   0.000000  8.430287e+00  3.178683e+00  1.033062e+02  # Pt Pt
    213     167   15   0.000000  1.120704e+01  3.174517e+00  1.032915e+02  # Pt Pt
    214     168   15   0.000000  1.398102e+01  3.177681e+00  1.032989e+02  # Pt Pt
    215     169   15   0.000000  1.675218e+01  3.178118e+00  1.033008e+02  # Pt Pt
    216     170   15   0.000000  1.952333e+01  3.175231e+00  1.033000e+02  # Pt Pt
    217     171   15   0.000000  2.229313e+01  3.176882e+00  1.033052e+02  # Pt Pt
    218     172   15   0.000000  2.506309e+01  3.177259e+00  1.033059e+02  # Pt Pt
    219     173   15   0.000000  1.506610e+00  3.149400e+00  1.009076e+02  # Pt Pt
    220     174   15   0.000000  4.277072e+00  3.149764e+00  1.009100e+02  # Pt Pt
    221     175   15   0.000000  7.047323e+00  3.154028e+00  1.009044e+02  # Pt Pt
    222     176   15   0.000000  9.818340e+00  3.151775e+00  1.008932e+02  # Pt Pt
    223     177   15   0.000000  1.259141e+01  3.156330e+00  1.008897e+02  # Pt Pt
    224     178   15   0.000000  1.536279e+01  3.155574e+00  1.009005e+02  # Pt Pt
    225     179   15   0.000000  1.813563e+01  3.153957e+00  1.009013e+02  # Pt Pt
    226     180   15   0.000000  2.090831e+01  3.154223e+00  1.009034e+02  # Pt Pt
    227     181   15   0.000000  2.367813e+01  3.154884e+00  1.009041e+02  # Pt Pt
    228     182   15   0.000000  2.644669e+01  3.152998e+00  1.009052e+02  # Pt Pt
    229     183   15   0.000000  1.236970e-01  3.126060e+00  9.850574e+01  # Pt Pt
    230     184   15   0.000000  2.893182e+00  3.127415e+00  9.850706e+01  # Pt Pt
    231     185   15   0.000000  5.662220e+00  3.129396e+00  9.850706e+01  # Pt Pt
    232     186   15   0.000000  8.431791e+00  3.129440e+00  9.849780e+01  # Pt Pt
    233     187   15   0.000000  1.120481e+01  3.130317e+00  9.849120e+01  # Pt Pt
    234     188   15   0.000000  1.397788e+01  3.130171e+00  9.849744e+01  # Pt Pt
    235     189   15   0.000000  1.674919e+01  3.131378e+00  9.850196e+01  # Pt Pt
    236     190   15   0.000000  1.952045e+01  3.131459e+00  9.850269e+01  # Pt Pt
    237     191   15   0.000000  2.229175e+01  3.132129e+00  9.850474e+01  # Pt Pt
    238     192   15   0.000000  2.506325e+01  3.132808e+00  9.850485e+01  # Pt Pt
    239     193   15   0.000000  1.508262e+00  3.105345e+00  9.610606e+01  # Pt Pt
    240     194   15   0.000000  4.277816e+00  3.106122e+00  9.610543e+01  # Pt Pt
    241     195   15   0.000000  7.046550e+00  3.105154e+00  9.610300e+01  # Pt Pt
    242     196   15   0.000000  9.817928e+00  3.106418e+00  9.609891e+01  # Pt Pt
    243     197   15   0.000000  1.259151e+01  3.107279e+00  9.609844e+01  # Pt Pt
    244     198   15   0.000000  1.536359e+01  3.107260e+00  9.610272e+01  # Pt Pt
    245     199   15   0.000000  1.813536e+01  3.109202e+00  9.610229e+01  # Pt Pt
    246     200   15   0.000000  2.090629e+01  3.109754e+00  9.610480e+01  # Pt Pt
    247     201   15   0.000000  2.367745e+01  3.110625e+00  9.610552e+01  # Pt Pt
    248     202   15   0.000000  2.644790e+01  3.109152e+00  9.610548e+01  # Pt Pt
    249     203   15   0.000000  1.220180e-01  1.013146e+00  1.194159e+02  # Pt Pt
    250     204   15   0.000000  2.891969e+00  1.013893e+00  1.194167e+02  # Pt Pt
    251     205   15   0.000000  5.660683e+00  1.014537e+00  1.194171e+02  # Pt Pt
    252     206   15   0.000000  8.431203e+00  1.014048e+00  1.194153e+02  # Pt Pt
    253     207   15   0.000000  1.120309e+01  1.016220e+00  1.194145e+02  # Pt Pt
    254     208   15   0.000000  1.397489e+01  1.016155e+00  1.194152e+02  # Pt Pt
    255     209   15   0.000000  1.674753e+01  1.017748e+00  1.194153e+02  # Pt Pt
    256     210   15   0.000000  1.951950e+01  1.017367e+00  1.194150e+02  # Pt Pt
    257     211   15   0.000000  2.228974e+01  1.018229e+00  1.194156e+02  # Pt Pt
    258     212   15   0.000000  2.506090e+01  1.018900e+00  1.194161e+02  # Pt Pt
    259     213   15   0.000000  1.506617e+00  9.905410e-01  1.170153e+02  # Pt Pt
    260     214   15   0.000000  4.275927e+00  9.915290e-01  1.170163e+02  # Pt Pt
    261     215   15   0.000000  7.046820e+00  9.920380e-01  1.170158e+02  # Pt Pt
    262     216   15   0.000000  9.817279e+00  9.917930e-01  1.170151e+02  # Pt Pt
    263     217   15   0.000000  1.258902e+01  9.930250e-01  1.170155e+02  # Pt Pt
    264     218   15   0.000000  1.536061e+01  9.938680e-01  1.170173e+02  # Pt Pt
    265     219   15   0.000000  1.813384e+01  9.952540e-01  1.170169e+02  # Pt Pt
    266     220   15   0.000000  2.090478e+01  9.953900e-01  1.170157e+02  # Pt Pt
    267     221   15   0.000000  2.367590e+01  9.953100e-01  1.170164e+02  # Pt Pt
    268     222   15   0.000000  2.644607e+01  9.949940e-01  1.170163e+02  # Pt Pt
    269     223   15   0.000000  1.223380e-01  9.671950e-01  1.146154e+02  # Pt Pt
    270     224   15   0.000000  2.892179e+00  9.661560e-01  1.146157e+02  # Pt Pt
    271     225   15   0.000000  5.661169e+00  9.666860e-01  1.146152e+02  # Pt Pt
    272     226   15   0.000000  8.431050e+00  9.682840e-01  1.146155e+02  # Pt Pt
    273     227   15   0.000000  1.120169e+01  9.708170e-01  1.146167e+02  # Pt Pt
    274     228   15   0.000000  1.397322e+01  9.708270e-01  1.146192e+02  # Pt Pt
    275     229   15   0.000000  1.674701e+01  9.714390e-01  1.146207e+02  # Pt Pt
    276     230   15   0.000000  1.951958e+01  9.715520e-01  1.146197e+02  # Pt Pt
    277     231   15   0.000000  2.229205e+01  9.726720e-01  1.146176e+02  # Pt Pt
    278     232   15   0.000000  2.506199e+01  9.718920e-01  1.146162e+02  # Pt Pt
    279     233   15   0.000000  1.507751e+00  9.434720e-01  1.122153e+02  # Pt Pt
    280     234   15   0.000000  4.276207e+00  9.427080e-01  1.122160e+02  # Pt Pt
    281     235   15   0.000000  7.045822e+00  9.395420e-01  1.122162e+02  # Pt Pt
    282     236   15   0.000000  9.813995e+00  9.402440e-01  1.122182e+02  # Pt Pt
    283     237   15   0.000000  1.258542e+01  9.442530e-01  1.122210e+02  # Pt Pt
    284     238   15   0.000000  1.535899e+01  9.474590e-01  1.122236e+02  # Pt Pt
    285     239   15   0.000000  1.813434e+01  9.500130e-01  1.122234e+02  # Pt Pt
    286     240   15   0.000000  2.090854e+01  9.484370e-01  1.122213e+02  # Pt Pt
    287     241   15   0.000000  2.367852e+01  9.490900e-01  1.122173e+02  # Pt Pt
    288     242   15   0.000000  2.644779e+01  9.487560e-01  1.122161e+02  # Pt Pt
    289     243   15   0.000000  1.224190e-01  9.197000e-01  1.098153e+02  # Pt Pt
    290     244   15   0.000000  2.891859e+00  9.197230e-01  1.098156e+02  # Pt Pt
    291     245   15   0.000000  5.659014e+00  9.175220e-01  1.098204e+02  # Pt Pt
    292     246   15   0.000000  8.426936e+00  9.145520e-01  1.098233e+02  # Pt Pt
    293     247   15   0.000000  1.119814e+01  9.198290e-01  1.098275e+02  # Pt Pt
    294     248   15   0.000000  1.397656e+01  9.321820e-01  1.098265e+02  # Pt Pt
    295     249   15   0.000000  1.674879e+01  9.334620e-01  1.098229e+02  # Pt Pt
    296     250   15   0.000000  1.952264e+01  9.320420e-01  1.098221e+02  # Pt Pt
    297     251   15   0.000000  2.229415e+01  9.274340e-01  1.098183e+02  # Pt Pt
    298     252   15   0.000000  2.506289e+01  9.254540e-01  1.098162e+02  # Pt Pt
    299     253   15   0.000000  1.506939e+00  8.957650e-01  1.074152e+02  # Pt Pt
    300     254   15   0.000000  4.270606e+00  9.015650e-01  1.074184e+02  # Pt Pt
    301     255   15   0.000000  7.038683e+00  9.055570e-01  1.074256e+02  # Pt Pt
    302     256   15   0.000000  9.807479e+00  9.335530e-01  1.074298e+02  # Pt Pt
    303     257   15   0.000000  1.259665e+01  9.338870e-01  1.074285e+02  # Pt Pt
    304     258   15   0.000000  1.536908e+01  9.175070e-01  1.074197e+02  # Pt Pt
    305     259   15   0.000000  1.813829e+01  9.139390e-01  1.074170e+02  # Pt Pt
    306     260   15   0.000000  2.090928e+01  9.099220e-01  1.074166e+02  # Pt Pt
    307     261   15   0.000000  2.367827e+01  9.066220e-01  1.074160e+02  # Pt Pt
    308     262   15   0.000000  2.644759e+01  9.046800e-01  1.074159e+02  # Pt Pt
    309     263   15   0.000000  1.235550e-01  8.771760e-01  1.050154e+02  # Pt Pt
    310     264   15   0.000000  2.892062e+00  8.688380e-01  1.050167e+02  # Pt Pt
    311     265   15   0.000000  5.655019e+00  8.935820e-01  1.050216e+02  # Pt Pt
    312     266   15   0.000000  8.413967e+00  9.015740e-01  1.050265e+02  # Pt Pt
    313     267   15   0.000000  1.120272e+01  8.825430e-01  1.050258e+02  # Pt Pt
    314     268   15   0.000000  1.399244e+01  8.989920e-01  1.050164e+02  # Pt Pt
    315     269   15   0.000000  1.675415e+01  8.820090e-01  1.050135e+02  # Pt Pt
    316     270   15   0.000000  1.952354e+01  8.825950e-01  1.050133e+02  # Pt Pt
    317     271   15   0.000000  2.229338e+01  8.843950e-01  1.050143e+02  # Pt Pt
    318     272   15   0.000000  2.506254e+01  8.865100e-01  1.050151e+02  # Pt Pt
    319     273   15   0.000000  1.508411e+00  8.534950e-01  1.026166e+02  # Pt Pt